# vtk DataFile Version 2.0
Really cool data
ASCII
DATASET STRUCTURED_POINTS
DIMENSIONS 400 400 1
ORIGIN 0 0 0
SPACING 1 1 1
POINT_DATA 160000
SCALARS Scalars8 unsigned_char 1
LOOKUP_TABLE default
188 185 183 176 170 161 157 152 150 147 146 144 142 141 139 138 136 135 135 134 134 132 131 130 129 126 124 123 122 121 120 120 120 119 119 119 118 118 117 116 116 115 114 114 113 112 112 111 111 110 109 108 108 107 107 106 106 106 106 106 107 107 106 105 104 103 103 103 103 104 104 104 103 103 103 104 105 106 106 107 107 107 108 109 110 111 112 113 114 115 115 117 117 118 119 120 121 122 123 122 121 120 118 115 112 108 106 101 98 94 92 91 90 89 89 89 90 90 90 91 91 92 92 93 93 94 95 96 96 96 96 96 96 95 94 93 92 89 87 84 83 80 78 77 75 74 73 73 72 71 70 69 68 68 67 66 66 65 64 64 63 63 63 63 63 63 63 63 63 63 62 62 62 61 61 61 61 61 61 60 60 60 60 60 60 60 60 59 59 59 59 59 59 59 59 59 59 58 58 58 58 58 58 59 59 60 60 59 59 59 59 60 61 63 64 66 68 69 70 70 69 69 69 69 69 69 69 69 68 67 65 63 61 60 59 58 58 57 57 57 56 56 55 55 54 53 52 51 49 47 45 44 43 42 41 41 41 41 41 41 41 41 42 43 43 44 44 44 44 44 45 45 46 47 49 51 53 55 59 61 64 65 66 66 66 64 62 60 58 56 55 55 57 60 65 69 73 74 75 76 76 77 77 78 79 80 80 81 82 83 83 83 83 83 82 81 81 81 81 81 81 81 81 81 81 80 80 80 79 78 78 77 76 75 73 72 72 73 74 75 76 77 77 78 78 78 78 78 78 78 77 77 76 76 75 74 73 71 69 68 68 67 66 66 65 64 63 64 64 68 69 72 72 71 70 67 65 64 63 63 64 65 66 67 66 64 63 63 63 63 63 65 67 69 72 73 74 74 73 73 188 186 184 177 171 162 158 154 152 149 147 146 144 142 140 138 136 135 134 133 132 131 130 129 128 126 125 124 122 121 121 120 120 120 119 119 118 118 117 117 116 115 114 114 113 113 112 112 111 111 110 109 108 108 107 106 106 106 106 106 106 107 106 105 104 103 103 103 103 104 104 104 104 104 104 104 106 106 107 107 107 107 108 108 110 111 112 112 113 114 115 116 117 117 118 119 121 122 123 123 122 121 119 116 114 110 107 102 99 95 93 92 90 89 89 89 89 89 89 89 89 90 90 91 91 92 94 94 95 95 94 94 94 94 93 92 90 88 86 84 83 80 78 76 74 73 73 72 70 70 69 69 68 68 67 67 66 66 66 65 64 64 64 63 63 63 63 64 63 63 63 62 62 61 61 61 61 60 60 60 60 60 60 60 60 59 59 59 59 58 58 58 58 58 58 58 58 58 58 58 58 58 58 58 58 59 59 58 58 58 58 59 61 62 64 66 68 70 70 70 69 69 69 68 68 68 69 69 69 68 67 66 63 62 60 59 58 57 57 56 56 56 55 55 54 53 52 51 49 48 45 43 42 41 41 41 41 41 41 40 41 41 42 43 43 44 44 44 44 44 44 45 46 47 48 50 52 53 56 58 60 61 62 62 61 60 58 56 55 54 55 56 60 62 67 70 73 74 75 76 77 78 79 80 81 81 82 82 82 83 83 83 83 82 81 81 81 81 81 81 81 81 81 81 81 80 80 80 79 79 78 77 76 75 73 71 71 72 72 74 74 76 76 77 77 78 78 78 78 78 78 77 77 76 75 74 73 71 69 68 66 66 65 64 64 63 63 63 64 68 69 71 72 70 68 66 64 63 62 63 63 64 66 66 66 64 63 62 62 62 63 65 67 69 72 73 73 73 71 71 189 186 184 177 172 164 160 155 154 152 149 148 145 143 141 139 137 135 134 132 131 131 130 129 128 127 125 125 123 122 121 120 120 120 119 119 119 118 117 117 116 115 114 114 113 113 112 112 111 111 110 109 109 108 107 107 106 106 106 106 106 106 106 105 104 103 103 103 103 104 104 104 104 104 104 105 106 106 107 107 107 107 108 109 109 111 111 112 113 114 114 115 116 117 119 120 121 122 123 123 123 121 120 117 115 112 108 103 100 96 94 92 91 90 89 88 89 88 88 88 88 89 89 90 90 91 92 93 93 93 93 92 93 92 92 91 90 87 86 84 82 79 77 75 74 73 72 71 70 70 69 69 68 68 67 67 67 66 66 65 65 64 64 64 64 64 64 64 64 64 63 63 62 61 61 61 61 60 60 60 60 60 60 60 60 60 59 59 59 58 58 58 58 58 58 58 58 58 58 58 58 58 58 58 58 59 58 58 58 57 58 59 60 62 64 65 68 70 70 70 69 69 69 68 68 68 68 69 69 69 68 67 66 64 62 60 59 58 57 56 56 55 54 54 53 53 52 51 50 48 45 43 42 41 41 41 41 41 41 40 41 41 42 43 43 44 44 44 44 44 44 45 45 47 48 49 51 52 55 56 58 59 59 59 59 57 55 54 53 54 55 57 61 63 67 70 72 74 75 77 78 79 80 81 82 82 83 83 83 83 83 83 82 81 81 81 80 81 81 81 81 81 81 81 81 80 80 80 79 79 78 78 76 75 72 70 70 70 72 73 74 75 76 77 77 78 78 78 79 78 78 77 77 76 75 74 73 70 69 67 65 65 64 64 63 63 62 63 64 67 69 71 70 69 68 66 64 62 62 62 63 64 65 66 65 64 63 62 62 62 63 65 67 69 71 72 72 71 70 70 188 186 184 178 172 166 163 159 157 156 153 152 149 147 144 142 139 136 135 133 132 131 131 130 129 129 127 127 125 124 123 121 121 121 120 119 119 118 118 117 116 115 114 114 114 113 113 112 112 111 111 110 109 108 108 107 106 106 106 106 106 106 106 105 104 103 103 103 104 104 104 104 104 104 104 105 106 107 107 107 108 108 108 109 110 110 111 112 112 113 114 115 116 117 118 120 121 123 123 124 124 123 121 119 117 113 111 106 102 98 95 94 91 90 89 89 88 87 87 87 87 87 87 88 88 89 90 91 91 91 91 91 91 91 91 90 88 87 85 83 81 79 76 75 74 73 72 71 70 70 69 69 68 68 68 67 67 67 66 66 65 65 65 65 65 65 65 65 65 65 64 64 63 62 62 61 61 60 60 60 61 61 61 61 60 60 60 60 59 58 58 58 58 58 58 58 58 58 58 58 57 57 58 58 58 58 58 58 57 57 57 58 60 61 63 64 67 69 69 70 70 69 69 67 67 67 67 68 69 69 69 69 68 67 65 62 61 59 57 56 56 54 53 53 52 52 52 52 50 49 46 44 43 41 41 41 41 41 41 40 41 41 42 43 43 43 44 44 44 44 44 45 45 46 47 49 50 51 53 54 55 56 56 56 56 54 53 52 53 55 56 59 62 64 67 69 72 73 75 77 79 80 81 83 83 83 83 83 83 83 82 82 81 81 80 80 80 80 80 81 80 81 81 81 80 80 80 80 79 79 79 78 77 75 72 70 69 70 70 72 73 74 75 76 77 78 78 78 79 78 78 77 77 76 75 73 72 70 68 66 64 63 63 62 62 62 62 63 63 66 68 69 69 68 66 65 63 62 61 61 62 63 65 65 64 64 63 62 61 61 62 64 67 69 70 71 70 69 68 68 188 186 184 178 174 168 165 162 160 159 157 155 153 151 147 145 141 138 136 134 133 132 132 131 131 130 129 129 127 125 124 123 122 121 121 120 119 119 118 117 117 115 115 114 114 113 113 112 112 112 111 110 109 108 108 107 107 106 106 106 107 106 106 105 104 104 103 104 104 104 105 104 104 104 105 105 106 107 107 108 108 108 109 109 110 110 111 112 112 113 114 115 116 117 119 120 121 123 124 124 124 123 122 120 118 115 112 107 104 100 96 95 92 91 90 89 87 87 87 86 86 86 86 87 87 88 89 90 90 90 90 90 90 90 89 88 87 86 84 83 81 78 76 75 74 73 72 71 71 70 70 69 69 68 68 67 67 67 66 66 66 66 65 65 65 65 66 66 66 66 65 64 63 62 62 61 61 61 60 60 61 61 61 61 61 61 60 60 59 59 58 58 57 57 57 57 58 58 58 58 57 58 58 58 58 58 58 57 57 57 57 58 59 60 62 63 66 68 69 70 70 69 69 67 66 66 66 67 68 69 69 69 69 69 67 64 62 60 59 57 56 55 53 52 52 52 52 52 51 49 47 45 43 42 41 41 41 41 41 40 41 41 42 43 43 43 44 44 44 44 44 45 45 46 47 48 49 50 52 52 54 54 55 55 54 53 53 52 53 55 57 60 62 64 67 69 72 73 76 78 79 81 82 83 84 84 84 83 83 83 82 81 81 81 80 80 80 80 80 81 80 80 80 80 80 80 80 80 79 79 79 78 77 75 72 69 69 69 70 72 72 74 75 76 77 77 78 78 78 78 78 77 77 75 75 73 72 69 68 66 64 63 62 62 61 61 61 62 63 65 67 68 67 67 66 64 62 61 61 61 62 63 64 64 64 63 62 61 61 62 62 64 67 69 70 70 69 68 67 67 188 186 184 179 175 170 168 166 165 164 162 160 159 157 152 149 145 142 140 138 136 136 135 135 134 134 133 132 131 129 126 125 123 123 122 121 120 119 119 118 117 116 115 115 114 114 113 112 112 112 111 110 109 108 108 107 107 106 106 106 106 106 106 105 104 104 104 104 104 105 105 105 104 104 105 105 106 107 107 108 108 108 109 109 110 111 111 112 112 113 113 115 116 117 119 120 121 123 124 124 125 124 124 121 120 117 114 110 106 102 98 96 93 92 91 90 89 87 87 86 86 86 86 86 86 87 88 88 88 88 88 88 88 87 87 87 86 84 83 82 80 78 77 76 75 74 73 73 72 72 71 70 69 68 68 68 68 67 67 67 66 66 66 66 66 66 66 66 66 66 66 65 64 63 63 62 62 61 61 61 62 61 62 62 62 62 61 61 60 59 59 58 57 57 57 57 57 57 57 57 58 58 58 59 59 58 58 57 57 57 57 57 58 59 60 62 64 66 67 69 70 70 69 67 66 65 64 65 66 67 69 70 70 70 69 67 65 62 61 59 57 55 53 52 52 52 52 52 51 50 48 46 45 43 41 41 41 40 41 40 41 41 42 42 43 43 44 44 44 44 44 45 45 46 47 48 48 49 50 50 52 52 53 53 53 53 53 53 55 57 58 61 63 65 68 70 72 74 77 79 80 82 83 84 84 84 84 83 83 82 81 81 80 80 80 80 80 80 80 80 80 80 80 80 80 80 80 80 79 79 79 78 77 74 71 69 69 69 70 71 72 74 74 75 77 77 78 78 78 78 77 76 76 74 74 72 70 68 67 65 64 63 61 61 61 61 61 61 62 63 64 65 65 65 64 63 61 61 60 61 61 62 63 64 63 63 62 61 61 61 62 64 67 68 70 69 68 67 65 65 188 186 184 180 176 172 170 169 169 167 165 164 162 160 156 152 148 145 142 141 139 138 138 137 137 137 136 136 134 131 129 127 125 124 123 122 121 120 119 118 117 116 115 115 114 114 113 113 112 112 111 110 109 109 108 107 107 106 106 106 106 106 106 105 104 104 104 104 104 105 105 105 104 104 105 106 106 107 108 108 108 109 109 110 110 111 111 112 112 113 113 114 116 117 119 120 121 123 124 124 125 125 124 123 122 119 117 112 108 104 100 97 94 93 92 91 89 87 87 86 85 85 85 85 85 86 87 87 87 87 87 87 87 87 86 86 85 84 83 81 80 79 77 77 76 75 74 74 73 73 72 71 70 69 69 68 68 68 67 67 67 66 66 66 66 66 67 67 67 67 67 66 65 64 64 63 62 62 62 62 62 62 62 62 62 62 62 61 60 60 59 58 57 57 57 57 57 57 57 57 58 58 59 59 59 59 59 58 57 57 57 57 57 58 60 61 63 64 66 68 69 70 69 67 66 64 64 64 65 66 68 70 71 71 71 69 67 65 63 61 59 56 54 53 52 52 52 52 52 51 49 47 45 43 42 41 41 40 40 40 40 41 42 42 43 43 43 44 44 44 44 45 45 46 46 47 47 48 49 49 51 51 52 52 52 52 53 55 56 58 60 62 64 66 69 70 73 75 78 79 81 83 84 84 84 84 83 83 82 82 81 81 80 80 80 80 80 80 80 80 80 80 80 80 80 80 80 79 79 79 78 78 76 74 71 69 69 69 69 70 72 73 74 75 76 77 78 78 78 77 77 76 75 74 73 71 70 68 66 65 64 63 62 62 61 61 61 61 61 62 63 64 64 64 63 62 61 60 60 60 61 62 63 63 63 63 62 62 61 61 62 64 67 68 69 69 67 66 64 64 187 186 184 181 179 176 174 173 173 172 171 170 168 165 161 158 152 148 146 144 143 143 143 142 142 142 142 141 138 136 132 130 128 126 124 123 122 121 120 119 118 117 115 115 114 113 113 112 112 112 111 110 110 109 108 107 107 106 106 106 106 106 105 104 104 104 104 104 105 105 105 104 104 104 105 106 106 107 108 108 109 109 110 110 111 111 111 112 112 113 113 114 116 117 118 119 121 122 123 124 125 126 125 125 124 121 119 114 111 107 102 100 96 95 93 92 91 89 87 86 85 85 85 84 85 85 85 85 85 85 86 86 85 85 85 84 84 83 83 81 80 79 78 78 77 77 76 75 75 75 74 73 72 71 70 69 69 68 68 68 67 67 67 67 67 67 67 67 68 68 67 67 66 66 65 64 64 63 63 63 63 63 63 63 63 63 62 62 61 60 60 58 57 57 57 56 56 57 57 57 58 58 59 59 60 60 59 58 57 57 56 56 56 57 57 59 60 62 64 66 67 69 69 67 66 64 63 63 63 65 67 69 71 72 72 72 71 69 67 64 62 59 55 54 53 52 52 52 51 51 49 47 46 44 43 41 41 40 40 40 41 41 41 42 43 43 43 43 43 44 44 45 45 45 45 46 46 46 47 47 49 50 50 51 52 53 53 55 57 60 61 64 66 68 70 72 74 76 79 81 83 84 84 84 84 83 83 82 81 81 81 80 80 79 79 79 79 80 80 80 80 80 80 79 79 79 79 79 79 78 78 77 75 73 70 69 68 69 69 71 72 73 75 75 76 77 77 77 77 77 76 75 74 73 72 70 69 67 67 66 64 64 63 63 62 61 61 60 61 61 62 62 62 62 62 61 60 60 60 60 61 61 62 62 63 63 63 62 61 61 62 64 66 68 69 68 67 65 64 63 188 186 185 182 180 178 177 176 176 175 174 173 171 169 164 161 156 152 149 147 146 146 146 145 145 145 145 145 142 139 135 132 129 128 125 124 123 121 120 119 118 116 115 114 114 113 113 112 112 112 111 110 110 109 108 107 107 106 106 106 106 106 105 104 103 103 104 104 104 104 104 104 104 104 104 105 106 107 108 108 109 109 110 110 111 111 112 112 112 113 114 115 116 117 118 119 121 122 123 124 125 126 126 126 125 123 120 116 113 109 104 101 98 97 95 94 92 90 89 87 86 85 84 84 84 84 84 84 85 85 85 85 84 84 84 83 83 82 81 80 80 79 78 78 78 77 77 77 76 76 75 74 73 72 71 70 69 69 69 68 68 68 68 68 67 68 68 68 68 68 68 67 67 66 66 65 64 64 64 63 63 63 63 63 63 63 63 62 61 61 60 58 57 57 57 56 56 56 57 57 58 58 59 60 60 60 59 58 57 57 56 56 56 56 57 57 59 61 62 64 66 68 68 68 66 64 62 62 63 64 67 68 71 72 73 73 73 71 69 67 64 61 57 55 53 53 52 51 51 51 49 47 46 44 43 41 41 40 40 40 40 41 41 41 42 43 43 43 43 44 44 44 44 44 44 45 45 46 46 46 47 49 50 51 52 53 54 56 57 60 62 64 67 68 70 72 75 77 79 81 83 84 84 84 83 83 82 81 81 81 80 80 79 79 79 79 79 79 80 80 80 79 79 79 79 79 79 78 78 78 78 77 75 73 70 69 69 69 70 71 72 73 74 75 76 76 77 77 77 76 75 75 74 72 71 69 68 67 66 66 65 64 64 63 62 62 61 60 60 61 61 61 61 61 61 61 60 60 59 60 60 61 61 62 63 63 63 62 61 61 62 64 66 68 68 68 67 65 64 63 188 187 186 184 183 181 181 180 180 180 179 178 176 174 170 167 162 157 154 151 150 150 150 150 150 150 149 149 146 143 139 136 132 130 128 125 124 123 121 119 118 116 115 114 113 113 113 112 112 111 111 110 109 108 108 107 107 106 106 106 106 105 104 104 103 103 103 104 104 104 104 104 104 104 104 105 106 106 107 108 109 109 110 111 111 111 112 112 112 113 114 115 116 117 118 119 120 121 123 124 126 126 127 127 126 125 123 119 116 112 107 104 101 100 98 97 94 92 90 88 87 85 85 84 84 83 83 83 83 83 83 83 83 83 83 82 82 80 80 80 79 79 79 79 78 78 78 78 78 78 77 76 75 73 72 72 71 70 69 69 69 69 69 69 68 68 69 69 69 69 69 68 68 68 67 66 65 65 64 64 64 64 64 64 64 63 63 62 62 61 60 59 58 57 57 56 56 56 57 57 58 58 58 59 60 59 59 58 57 57 56 56 56 55 55 55 57 58 60 62 63 66 66 67 66 64 62 61 61 62 65 67 70 71 73 74 74 73 73 70 68 64 60 57 55 53 52 51 50 50 49 47 46 44 43 41 41 40 40 40 40 40 41 41 42 42 42 43 43 43 44 44 44 43 43 44 44 44 45 45 46 47 49 50 51 53 54 56 57 60 62 64 66 68 72 73 75 78 80 82 84 84 84 83 82 81 81 81 80 80 80 80 79 79 79 79 79 79 80 79 79 79 79 78 79 78 78 78 78 78 77 77 75 73 70 69 69 69 70 71 72 73 74 75 75 75 76 76 76 75 75 74 73 72 71 69 69 68 67 67 66 66 66 65 63 63 62 61 60 60 60 60 60 59 60 60 59 58 58 59 59 60 61 62 63 63 63 62 62 61 62 63 66 67 68 67 66 65 64 63 189 188 187 186 185 184 183 183 183 183 183 182 180 179 175 172 168 164 160 156 155 154 155 155 154 154 154 153 151 148 143 140 136 133 130 127 126 123 121 119 118 116 114 113 113 113 112 112 111 111 110 109 109 108 107 107 107 106 106 106 106 105 104 103 103 103 103 104 104 104 104 104 104 104 104 104 105 106 107 108 109 110 110 111 112 112 112 113 113 114 114 115 116 117 118 118 120 120 122 123 125 126 127 128 128 126 125 121 119 115 111 108 104 103 101 100 97 95 93 90 89 86 85 84 83 83 83 82 82 82 82 82 82 81 81 81 80 79 79 79 79 79 79 79 79 79 79 79 79 79 79 78 77 75 74 73 73 72 71 71 70 70 70 70 70 70 70 70 70 70 70 69 69 69 68 67 67 66 66 65 65 64 64 64 64 63 63 62 62 61 60 59 58 57 57 56 56 56 56 57 57 58 58 59 59 58 58 57 57 57 56 55 55 55 55 55 55 57 58 60 61 63 64 66 66 63 61 60 60 61 63 65 68 70 72 74 75 75 74 73 71 67 63 60 57 55 53 52 50 50 49 47 45 44 43 41 41 40 40 40 40 40 41 41 41 41 41 42 42 43 43 43 43 43 43 43 44 44 44 45 46 47 49 49 51 52 53 55 57 59 61 63 66 68 72 74 76 78 81 82 84 84 83 82 81 81 80 80 80 80 79 79 79 79 79 79 79 79 79 79 79 78 78 78 78 78 78 78 78 78 77 77 74 73 70 69 69 69 70 71 72 73 74 74 75 75 74 75 75 75 75 74 73 72 71 70 69 68 68 68 68 67 67 66 65 64 63 61 61 60 59 59 59 58 58 58 58 58 58 58 58 58 60 61 63 64 64 63 62 61 62 63 64 66 67 67 66 65 63 62 190 189 188 187 186 185 185 185 185 185 185 184 183 181 178 176 172 168 165 160 158 158 158 158 157 157 157 156 153 151 145 142 138 135 132 129 126 123 121 119 118 115 114 113 113 112 112 111 111 111 110 109 108 108 107 107 107 106 106 106 106 105 104 103 103 102 103 104 104 105 104 104 104 104 104 104 105 106 107 108 109 110 111 111 112 112 112 113 113 114 114 115 116 117 117 118 119 120 122 123 125 126 126 127 127 126 125 122 120 117 112 110 107 105 103 102 100 97 95 92 90 87 86 84 83 83 81 81 82 81 81 81 81 80 80 80 79 79 78 78 78 79 79 79 79 79 79 79 80 80 80 78 78 77 76 75 74 73 73 72 72 72 71 71 70 70 70 70 70 70 70 70 69 69 68 68 67 67 66 66 65 65 64 64 64 63 63 62 62 61 60 59 58 57 57 56 56 56 56 57 57 57 58 58 58 58 58 57 57 56 56 55 55 55 55 55 55 56 57 59 60 62 63 64 64 63 60 59 60 61 63 64 67 69 72 74 75 76 76 75 73 70 66 63 58 56 53 52 50 49 48 47 45 44 43 41 41 41 40 40 40 40 40 40 40 41 41 41 42 43 43 43 43 43 43 43 44 44 44 45 46 47 48 49 51 52 53 55 57 59 60 63 66 68 72 74 77 79 81 83 83 83 82 81 81 80 80 79 79 79 79 79 79 79 79 79 79 79 79 79 79 78 78 78 78 77 78 77 77 78 77 77 74 72 70 69 68 69 69 71 72 73 74 74 74 74 74 74 74 74 75 74 73 73 72 70 70 69 69 69 69 68 68 67 66 65 64 62 61 60 60 59 59 58 58 58 58 57 57 57 57 57 60 61 63 65 64 63 62 61 62 62 64 65 66 66 65 64 63 62 191 191 190 189 188 188 187 187 187 187 187 186 186 185 182 180 177 173 170 168 166 165 164 163 162 161 160 159 155 153 148 145 140 137 134 130 128 124 121 119 117 114 113 112 112 111 111 111 110 109 109 108 108 107 107 107 107 106 106 106 105 104 103 103 102 102 103 104 104 105 105 104 104 104 104 104 105 106 107 108 109 110 111 111 112 113 113 113 114 114 115 116 116 117 117 118 118 119 121 122 123 125 125 126 126 126 125 123 121 118 114 112 109 108 106 104 102 99 97 94 92 89 87 85 84 82 81 81 81 81 80 80 80 79 79 78 78 78 78 78 78 78 78 78 79 79 79 80 80 80 80 80 79 79 78 77 76 75 75 74 74 73 73 73 72 72 72 71 70 70 70 70 70 69 69 69 68 68 67 66 66 65 65 64 64 63 62 62 61 60 59 58 58 57 56 56 56 56 56 56 56 57 57 57 57 57 57 57 56 56 56 55 55 55 55 55 54 55 56 57 58 60 61 62 62 61 59 58 59 60 62 64 67 69 71 74 75 76 77 77 76 73 69 66 61 58 54 52 50 49 47 46 45 44 43 42 41 40 40 40 40 40 40 40 40 40 40 41 41 41 42 43 43 43 43 43 44 44 45 45 46 47 48 49 50 52 52 55 56 58 60 63 67 69 73 75 77 79 81 82 83 83 81 80 80 80 79 79 79 79 79 79 79 79 79 79 79 79 79 78 78 77 77 77 77 77 77 76 77 77 77 76 74 72 69 68 68 68 69 70 71 72 73 73 73 72 73 73 73 74 74 74 74 73 72 71 71 70 70 70 70 70 69 69 68 67 66 64 63 61 61 59 59 58 57 57 57 57 56 56 56 57 59 61 64 65 65 63 62 62 62 62 62 63 64 64 64 64 63 62 192 191 191 190 189 189 188 188 188 188 188 187 187 186 184 183 180 176 175 173 172 170 169 166 165 164 162 160 156 153 148 145 141 138 135 130 128 124 121 118 117 114 113 112 111 111 110 110 109 109 108 108 107 107 107 107 107 106 106 106 105 104 103 102 102 102 103 104 104 104 105 104 104 104 104 104 105 106 107 108 109 110 111 111 112 113 113 114 114 115 115 116 117 117 117 117 118 119 120 121 123 124 124 125 125 125 125 123 121 119 115 113 111 109 107 106 103 101 99 96 94 90 89 86 84 83 81 81 80 80 80 79 79 79 78 78 77 77 77 77 77 78 78 78 78 78 79 79 80 81 81 80 80 79 79 78 78 76 76 75 75 75 74 74 73 72 72 71 71 70 70 70 70 69 69 68 68 68 67 66 66 66 65 64 64 63 62 62 61 60 59 58 57 57 56 56 56 56 56 56 56 56 56 57 57 57 57 56 56 56 56 55 55 55 55 55 54 55 55 56 57 58 59 60 60 59 58 58 59 60 62 64 67 69 71 74 75 77 77 77 77 74 71 68 63 60 55 53 51 49 47 46 45 44 43 42 41 40 40 40 40 40 40 40 40 40 40 40 41 41 42 42 43 43 43 44 44 44 45 45 46 47 48 49 50 51 52 54 56 58 60 63 67 69 74 75 78 79 81 83 83 82 81 80 79 79 79 79 79 79 79 79 79 79 79 79 79 79 79 78 78 77 77 76 76 75 75 75 76 76 76 75 74 72 69 68 68 68 68 69 70 72 72 72 72 72 72 73 73 73 74 74 74 73 73 72 72 71 71 71 71 71 70 70 69 68 67 65 63 62 61 60 59 58 57 57 56 56 56 55 55 56 59 61 63 65 65 64 63 62 62 62 62 62 63 64 64 64 63 62 193 192 192 191 190 190 189 189 189 189 189 189 189 188 187 186 184 182 181 180 180 177 175 171 169 166 163 160 155 152 147 145 141 138 134 130 128 124 121 118 116 114 112 111 110 110 109 109 108 108 108 107 107 107 107 106 106 106 106 105 104 104 103 102 102 102 103 104 104 105 104 104 104 104 104 104 105 106 107 108 110 110 111 112 112 113 113 114 114 115 115 116 117 117 117 117 117 118 119 120 121 123 123 124 124 124 124 123 122 119 117 115 112 111 109 107 105 103 101 98 96 92 90 87 85 83 81 81 80 80 79 79 78 78 77 77 76 76 76 76 77 77 77 77 77 78 78 79 79 80 80 80 80 80 80 79 78 78 77 77 77 76 75 75 74 73 73 72 71 71 70 70 70 69 69 68 68 67 67 66 66 66 65 65 64 64 63 62 62 61 60 59 57 57 56 56 56 55 55 55 55 55 55 56 56 56 56 55 56 56 55 55 55 55 55 54 54 54 54 55 55 56 57 58 58 57 57 57 59 60 63 65 67 69 71 74 75 77 77 78 77 76 73 70 67 63 58 56 52 51 49 47 46 44 44 43 42 41 40 40 40 40 40 40 40 40 40 40 41 41 41 42 43 43 43 44 44 45 45 45 46 46 47 48 50 51 52 55 56 59 61 64 68 70 74 76 79 80 82 83 82 81 80 79 79 79 79 79 79 79 79 79 79 79 79 79 79 79 78 78 77 76 75 75 75 74 73 74 74 74 75 74 73 72 69 68 67 67 67 68 69 70 71 70 70 70 71 71 72 73 73 74 74 74 74 73 73 73 73 73 72 72 72 72 70 69 68 66 65 63 62 61 60 58 57 56 56 56 55 54 55 56 58 60 63 64 65 65 64 63 62 62 62 62 63 63 63 64 63 62 194 193 193 192 191 190 190 190 190 190 190 189 189 189 188 187 186 184 183 183 183 181 178 174 171 167 163 159 154 150 146 143 139 137 133 130 127 124 121 118 117 114 112 111 110 109 109 108 108 108 107 107 107 106 106 106 106 106 106 105 104 104 103 103 103 103 103 104 104 105 105 105 104 104 104 104 105 106 107 108 110 111 111 112 112 113 113 114 114 115 115 116 116 116 116 116 117 117 118 119 121 121 122 123 123 124 124 123 122 120 118 116 114 112 109 108 106 104 102 99 97 94 92 89 86 84 82 81 80 80 79 79 78 77 77 76 76 76 76 76 76 76 76 77 77 77 77 78 79 79 80 80 80 80 80 79 79 79 78 78 77 77 76 75 74 74 73 72 71 70 70 70 70 69 69 68 68 67 67 66 66 66 66 66 65 64 64 63 63 62 61 59 58 57 56 56 55 55 55 55 55 55 55 55 55 55 55 55 55 55 55 55 55 55 54 54 54 54 54 54 55 55 56 57 57 56 57 57 59 61 63 65 68 69 71 74 75 76 77 78 77 76 74 72 69 66 61 58 55 53 51 49 47 46 45 44 43 41 41 40 40 40 40 40 40 40 40 40 40 41 41 42 42 43 43 44 44 44 45 45 45 46 47 48 50 51 52 55 56 59 61 64 68 71 75 77 79 81 82 83 82 81 80 79 78 78 78 79 79 79 79 79 79 79 79 78 78 78 78 77 77 76 75 74 74 73 72 73 73 73 73 73 72 71 69 68 67 67 67 68 68 69 70 69 69 69 70 70 72 73 73 74 74 74 74 74 74 74 74 74 73 73 73 72 71 70 69 67 66 64 63 61 60 58 58 56 56 55 55 54 54 55 57 60 62 64 65 66 65 64 63 62 62 62 63 63 63 63 62 62 196 195 194 193 192 191 191 191 191 191 191 191 190 190 189 188 187 186 186 185 184 181 179 174 171 166 160 156 151 147 142 140 137 135 132 129 127 124 122 119 118 115 113 111 110 109 108 108 107 107 106 106 106 106 106 106 106 105 105 104 104 104 103 103 103 103 103 104 104 105 105 104 104 105 105 105 106 106 108 109 110 111 111 111 112 113 113 114 114 115 115 116 116 116 115 115 116 116 117 118 119 120 121 121 122 123 123 123 123 122 120 119 116 114 112 110 108 106 104 101 99 96 94 91 89 86 84 82 81 80 79 79 78 77 77 76 75 75 75 75 75 75 75 75 75 76 76 77 77 78 79 79 80 80 80 79 79 79 79 78 78 78 77 76 74 74 72 72 71 70 70 70 70 69 69 68 68 67 66 66 65 65 66 66 66 65 65 65 64 63 62 60 59 58 57 57 56 55 55 55 55 54 54 54 54 55 54 55 55 55 55 55 55 55 54 54 54 54 53 53 54 54 55 55 56 56 56 57 60 61 64 65 68 69 71 73 74 75 76 77 77 76 75 74 71 69 65 63 60 58 56 53 51 48 47 45 44 43 41 41 40 40 40 39 40 40 40 40 40 41 41 42 42 43 44 44 45 45 45 45 45 46 47 48 49 51 52 55 56 59 61 64 69 72 75 77 79 81 82 83 81 80 79 78 78 78 78 79 79 79 79 79 79 79 78 78 78 78 78 77 76 75 75 74 73 72 71 71 72 72 72 71 70 70 68 67 66 66 66 66 67 68 68 68 68 68 69 69 71 72 73 74 74 75 75 75 75 75 75 75 74 74 74 73 72 72 70 69 68 66 64 62 61 59 58 57 56 56 55 54 54 55 57 58 61 63 65 66 66 65 64 63 63 63 63 63 63 62 62 61 197 196 196 194 193 192 192 192 192 191 191 191 191 190 189 188 188 186 185 184 182 179 176 171 168 162 156 153 147 144 140 138 135 134 131 129 126 124 123 120 119 117 114 112 110 109 108 107 106 106 106 106 105 105 105 105 105 105 104 104 104 103 103 103 103 103 103 104 104 104 105 104 105 105 106 106 106 107 108 109 110 110 111 111 112 113 113 114 114 115 115 115 115 115 115 115 115 115 116 117 118 119 119 120 121 122 123 123 124 123 122 121 119 117 114 112 110 107 106 103 101 97 96 93 91 87 85 84 81 81 79 79 78 77 77 76 75 75 75 75 75 75 75 75 75 75 75 76 77 77 78 79 79 79 79 79 79 79 79 79 79 78 77 76 74 74 72 71 70 70 70 69 69 69 68 68 67 67 66 65 65 65 65 65 65 65 66 66 65 64 63 62 60 59 58 57 56 56 55 55 54 53 53 53 53 53 53 53 54 54 54 54 55 54 54 54 53 53 53 53 53 53 54 55 55 55 57 58 60 62 64 65 68 69 70 72 72 73 74 75 75 75 74 74 73 71 68 67 64 63 61 58 56 52 50 47 46 44 43 41 40 40 40 39 39 40 40 40 40 41 41 42 42 43 43 44 44 44 45 45 45 45 47 48 50 52 53 55 56 59 61 64 68 70 73 75 79 80 82 82 81 80 79 78 78 78 78 78 79 79 79 79 79 78 78 78 78 78 77 77 76 75 75 73 73 72 71 70 70 70 70 70 69 69 67 66 65 64 64 65 66 66 66 66 66 67 68 68 69 71 72 74 74 75 75 76 77 76 76 76 75 74 74 73 72 72 71 69 69 67 66 64 63 61 60 58 57 56 55 54 54 54 56 57 60 62 64 66 66 66 65 64 64 64 63 63 62 62 61 60 198 197 197 195 194 193 193 193 192 192 192 192 192 191 189 189 188 186 185 182 180 176 173 168 165 159 154 151 145 142 138 136 134 133 131 129 127 125 124 121 120 117 114 113 110 109 108 107 106 106 106 105 105 105 105 105 104 104 104 104 104 104 103 103 103 103 103 104 104 104 104 104 105 105 105 106 107 108 109 109 110 110 111 111 111 112 113 114 114 114 115 115 115 115 115 115 115 115 116 117 117 118 118 119 120 121 122 124 124 124 123 123 120 119 116 114 111 108 107 104 102 99 97 94 92 89 86 85 83 81 80 79 78 78 77 76 75 75 75 75 74 74 74 74 74 74 75 75 76 76 77 78 78 79 79 79 79 79 79 79 78 78 76 75 74 73 72 71 70 70 69 69 69 68 68 68 67 67 66 65 65 65 65 65 65 65 66 66 65 64 63 62 61 60 58 58 57 56 56 55 54 53 53 53 53 52 53 53 53 53 54 54 54 54 54 53 53 53 53 53 53 53 53 54 55 55 56 58 60 61 63 65 67 68 69 70 71 72 72 73 73 73 74 74 73 71 69 68 67 66 64 61 59 53 51 49 47 45 44 42 41 40 40 39 39 40 40 40 41 41 41 42 42 43 43 44 44 44 45 45 45 45 46 48 50 52 52 55 56 59 61 64 67 69 72 74 78 80 81 82 81 79 79 78 78 78 78 78 79 79 79 79 78 78 77 78 77 77 77 77 76 75 75 74 73 72 70 70 70 70 70 69 68 68 67 66 64 64 64 64 64 65 65 65 65 66 67 67 69 70 72 73 74 75 75 77 77 77 76 75 74 74 73 72 71 71 70 69 69 68 67 65 63 61 60 59 57 56 55 54 54 54 55 56 58 61 63 65 66 66 66 64 63 63 63 63 62 61 60 59 199 198 198 197 196 195 195 194 194 193 193 193 192 192 191 189 188 186 185 182 179 175 171 166 163 157 152 149 144 141 137 135 133 132 130 129 128 126 125 123 122 119 115 113 111 109 107 107 106 106 105 105 105 105 104 104 104 104 104 104 104 104 104 104 103 103 103 103 103 103 104 104 104 105 105 106 107 108 109 109 110 110 109 110 111 112 112 113 113 114 114 115 115 115 114 114 115 115 116 116 116 116 117 118 118 120 121 123 124 125 125 124 123 121 119 117 114 111 108 105 103 100 98 96 94 91 88 87 84 83 81 80 79 78 78 77 76 75 75 75 74 74 74 73 74 74 74 74 74 75 75 76 77 77 78 78 78 78 79 78 78 77 76 75 74 72 72 70 70 69 69 69 68 68 67 67 66 66 65 65 64 64 64 64 64 65 66 65 65 64 64 63 62 61 60 59 58 57 56 56 55 53 53 52 52 52 52 52 52 53 53 53 53 53 53 53 52 52 52 52 52 53 53 54 54 55 56 57 60 61 63 64 65 66 67 68 68 68 68 69 70 70 72 72 72 72 71 70 69 68 68 66 63 59 56 53 51 47 46 43 41 41 40 39 39 39 40 40 40 41 41 42 43 43 43 44 44 44 44 45 45 45 47 48 50 51 52 55 56 58 60 62 64 66 69 72 77 79 81 81 81 79 78 78 77 78 78 78 78 79 79 78 78 77 77 77 77 77 77 76 76 75 75 74 73 72 71 70 70 69 69 68 67 66 66 64 63 63 62 63 63 63 63 64 64 64 66 67 68 69 71 73 74 76 76 77 77 77 76 75 73 72 70 70 69 69 68 69 69 69 68 67 66 63 62 60 58 57 56 55 54 54 54 54 56 59 61 64 66 67 67 65 64 63 62 62 61 60 58 57 200 199 199 198 197 196 196 195 195 194 194 194 193 192 191 190 188 187 185 182 180 175 171 166 163 158 153 150 145 141 137 135 133 132 130 129 128 127 126 125 123 120 116 114 111 109 107 106 106 105 105 106 105 105 104 104 104 104 104 104 104 104 104 104 104 103 103 103 103 103 104 104 104 105 105 106 107 108 109 109 110 109 109 109 110 111 112 113 113 114 114 115 115 114 114 114 115 115 115 116 115 115 115 116 117 119 120 122 123 125 125 125 124 123 120 119 115 112 109 107 104 102 100 97 96 93 90 88 85 84 82 81 79 79 78 77 77 76 75 75 74 74 74 73 73 73 73 74 74 74 75 75 76 76 77 77 77 78 78 78 77 76 75 74 73 72 71 70 69 69 69 69 68 68 67 67 66 66 65 65 64 64 64 64 64 65 65 65 65 65 64 63 63 62 61 61 60 58 57 56 55 54 53 53 52 52 52 52 52 52 53 53 53 53 52 52 52 52 52 52 52 52 53 53 54 55 56 57 59 60 62 63 64 64 66 66 66 66 66 67 68 69 70 71 72 72 72 71 70 70 69 68 66 63 60 57 54 50 48 45 42 41 40 40 39 39 39 40 40 41 41 42 42 43 43 43 44 44 44 45 45 45 47 48 50 51 52 55 56 58 59 61 63 65 68 71 76 79 81 81 80 79 78 78 77 77 78 78 78 79 78 78 78 77 77 77 77 77 76 76 76 76 75 74 74 73 71 70 70 69 69 68 67 66 65 63 63 62 62 62 62 62 62 63 63 64 66 66 68 69 71 73 74 76 76 77 77 77 76 74 72 70 69 68 67 67 68 69 69 69 69 68 67 64 63 61 59 58 56 55 54 53 53 53 55 58 61 64 65 66 66 66 64 63 62 62 60 59 57 56 202 201 200 199 199 198 197 197 196 196 195 195 194 193 192 191 189 187 186 183 181 177 174 169 167 163 158 154 148 143 139 137 134 132 130 129 129 128 126 125 124 121 117 114 111 109 107 106 105 105 106 106 106 105 105 104 104 104 104 104 104 104 104 104 103 103 102 102 102 103 103 104 104 105 105 106 107 108 109 109 109 109 108 109 109 111 111 113 113 114 114 114 114 114 114 114 115 115 115 115 114 114 113 114 115 117 118 120 122 124 125 126 125 125 123 121 119 115 112 109 107 103 102 99 97 95 92 90 87 85 83 82 80 80 79 78 77 77 76 75 75 74 74 73 73 73 73 73 73 74 74 74 74 75 75 76 76 77 77 76 75 75 74 73 72 71 70 69 69 69 68 68 68 67 67 66 66 65 65 64 64 64 63 63 64 64 65 65 65 65 64 64 64 63 63 62 61 61 59 58 57 55 54 53 53 52 52 52 52 52 52 52 52 52 52 52 51 51 51 51 51 52 52 53 54 54 55 56 57 58 59 60 61 62 62 63 63 63 63 65 66 68 69 69 71 72 73 73 72 72 71 70 69 67 66 62 58 54 51 47 44 42 41 40 40 40 39 40 40 41 41 41 42 43 43 43 43 44 44 45 45 46 47 48 49 51 52 54 55 56 58 60 62 64 68 71 75 78 80 80 80 79 78 77 77 77 77 78 78 78 78 78 77 77 77 77 77 77 76 76 76 76 76 75 75 74 72 72 70 70 68 68 67 65 63 62 62 61 61 61 61 61 61 62 63 63 64 66 67 68 70 73 74 75 76 77 77 76 75 73 70 68 66 65 65 65 66 68 69 69 69 69 68 66 64 62 60 59 56 55 54 53 52 52 54 57 59 63 64 66 66 66 65 64 62 61 60 58 56 54 203 202 202 200 199 199 198 197 197 196 196 195 194 193 192 191 189 188 187 184 182 179 176 172 170 166 162 158 151 147 141 139 135 134 131 130 129 127 126 124 124 120 116 113 110 108 107 106 105 105 106 106 106 106 105 105 104 104 104 104 104 104 104 104 103 103 102 102 102 103 103 104 104 105 105 106 106 107 108 109 109 108 108 108 109 111 111 112 113 114 114 114 114 114 114 114 114 115 115 115 114 113 112 113 114 115 117 119 121 123 125 126 126 126 124 123 120 117 114 111 108 105 103 101 99 97 94 92 89 86 84 83 81 80 79 79 78 77 77 75 75 74 74 73 73 73 73 73 73 73 73 74 74 74 75 75 75 75 75 75 75 74 73 73 72 71 70 69 69 68 68 68 67 67 67 66 66 65 65 64 64 64 63 63 63 64 64 64 65 65 64 64 64 64 64 64 63 62 60 59 58 56 55 54 53 52 52 52 52 52 52 52 52 52 52 51 51 51 51 51 51 52 52 52 53 54 55 55 56 57 57 58 60 60 60 60 61 61 62 63 64 67 68 69 72 72 73 