# vtk DataFile Version 2.0
Unstructured Grid Example
ASCII
DATASET UNSTRUCTURED_GRID
POINTS 27 int
0 0 0
1 0 0
2 0 0
0 1 0
1 1 0
2 1 0
0 0 1
1 0 1
2 0 1
0 1 1
1 1 1
2 1 1
0 1 2
1 1 2
2 1 2
0 1 3
1 1 3
2 1 3
0 1 4
1 1 4
2 1 4
0 1 5
1 1 5
2 1 5
0 1 6
1 1 6
2 1 6
CELLS 11 60
1 24
2 26 25
3 21 22 18
3 22 19 18
6 18 15 19 16 20 17
6 15 16 17 14 13 12
4 22 23 20 19
4 6 10 9 12
4 5 11 10 14
8 0 1 4 3 6 7 10 9
8 1 2 5 4 7 8 11 10
CELL_TYPES 11
1 3 5 5 6 7 9 10 10 12 12
POINT_DATA 27
VECTORS Vectors0 int
1 0 0
1 1 0
0 2 0
1 0 0
1 1 0
0 2 0
1 0 0
1 1 0
0 2 0
1 0 0
1 1 0
0 2 0
0 0 1
0 0 1
0 0 1
0 0 1
0 0 1
0 0 1
0 0 1
0 0 1
0 0 1
0 0 1
0 0 1
0 0 1
0 0 1
0 0 1
0 0 1
SCALARS Scalars1 int 1
LOOKUP_TABLE default
0 1 2 3 4 5 6 7 8 9 10 11 12 13 14 15 16 17 18 19 20 21 22 23 24 25 26